<?xml version="1.0"?>
<VTKFile type="StructuredGrid" version="0.1" byte_order="LittleEndian" header_type="UInt32" compressor="vtkZLibDataCompressor">
  <StructuredGrid WholeExtent="0 29 0 29 0 59">
  <Piece Extent="0 29 0 29 0 59">
    <PointData Scalars="electron_flux">
      <DataArray type="Float64" Name="electron_flux" format="ascii" RangeMin="3.294349657291171e-68" RangeMax="49315413.19072501">
        101.13158111591785 188.09248805453404 311.85415860214783 460.9216020647942 607.2926432504008 713.2871692384566
        746.8377091766437 697.0814064913342 580.0109516175531 430.2137863442717 284.46437644959315 167.67444815693753
        88.1051547782772 41.26968800717636 17.23282537974665 6.4147128962313955 2.1285967459229953 0.6296583961477178
        0.16603973751875897 0.0390314344085354 0.008179229988852737 0.001527938108275594 0.0002544453624699381 0.000037772762787499475
        0.0000049987152404721975 5.897031905899202e-7 6.201603445125598e-8 5.813931913571507e-9 4.858825757491196e-10 3.619829734309624e-11
        2.404032837786909e-12 1.4232725797959537e-13 7.511578389234181e-15 3.534026156621077e-16 1.482189559305483e-17 5.541574476174088e-19
        1.846962311025716e-20 5.487547933382139e-22 1.453429780899892e-23 3.431667620792174e-25 7.222903518471442e-27 1.35523261511744e-28
        2.2667901168281298e-30 3.379902796474083e-32 4.492546127019753e-34 5.3232432707808297e-36 5.622837299014366e-38 5.29456341976675e-40
        4.444267865544378e-42 3.325567241381483e-44 2.2183326661955264e-46 1.3191161878010355e-48 6.992538395909036e-51 3.3043200380286346e-53
        1.3919536775020204e-55 5.227125120862233e-58 1.7498323585954137e-60 5.2218624209851e-63 1.3891522344014483e-65 3.294349657291171e-68
        211.93558991667132 394.17451971842763 653.5346757365244 965.9266725689895 1272.6679755140324 1494.794556996706
        1565.1044779468427 1460.8330797809563 1215.495316426413 901.5740839120223 596.1354976149324 351.3856175486964
        184.636863644316 86.48649192434328 36.11383281550155 13.442941826951198 4.460776762946218 1.319538586869255
        0.34795984926125784 0.08179591365416512 0.017140737973479484 0.0032020112882679102 0.0005332263908226365 0.00007915818852842164
        0.000010475517653586678 0.0000012358067795871393 1.2996340708501795e-7 1.2183919960925016e-8 1.0182359376304982e-9 7.585867259995472e-11
        5.037992208105841e-12 2.982669809794958e-13 1.5741579233325105e-14 7.406053677989477e-16 3.1061387071530276e-17 1.1613156273399425e-18
        3.8705718097339474e-20 1.1499935980673596e-21 3.045868507330132e-23 7.1915468302319985e-25 1.5136620046944994e-26 2.840082401460841e-28
        4.7503805965081875e-30 7.083066289754611e-32 9.414768395309162e-34 1.1155612227299715e-35 1.1783454058788618e-37 1.1095509526676214e-39
        9.313594442395215e-42 6.969198417869956e-44 4.648831127268629e-46 2.764395299128175e-48 1.4653857218481656e-50 6.9246718859303055e-53
        2.9170366024430502e-55 1.0954182994414018e-57 3.6670222009989736e-60 1.0943154259465871e-62 2.911165780593076e-65 6.903777537201928e-68
        421.2789581946396 783.5278212552311 1299.075853407183 1920.038925374794 2529.769724202693 2971.3060177112543
        3111.0658865481355 2903.798452106877 2416.1236949203076 1792.120855940611 1184.979556651172 698.4733755368683
        367.01540119328746 171.91515228811693 71.78595096232638 26.72146065772063 8.866992977308408 2.6229376641859568
        0.6916637401390769 0.162591367039174 0.03407182455289315 0.006364858210833566 0.0010599307954646537 0.0001573481792696543
        0.000020822907400251636 0.0000024564981881478207 2.583372087799369e-7 2.4218816244517905e-8 2.0240176516364096e-9 1.507895043749012e-10
        1.0014363843552772e-11 5.928858058257547e-13 3.1290620430296677e-14 1.4721522605163722e-15 6.174285683079312e-17 2.308426998095428e-18
        7.69380197192634e-20 2.2859214212903325e-21 6.05448245889429e-23 1.4295132580796332e-24 3.0088101420211136e-26 5.64542725336872e-28
        9.44265844878552e-30 1.407949834449523e-31 1.8714383095256003e-33 2.2174778190807884e-35 2.342278260943646e-37 2.2055307916309355e-39
        1.8513272665918585e-41 1.3853155338781707e-43 9.240801579803392e-46 5.49497879102215e-48 2.9128480520719476e-50 1.3764646886780171e-52
        5.7983944149069615e-55 2.17743834415664e-57 7.289192405677878e-60 2.175246086607548e-62 5.786724578266142e-65 1.37231137517937e-67
        794.2997418019581 1477.3012846042493 2449.3405019904776 3620.1343385640607 4769.750303608156 5602.244206064133
        5865.754228513725 5474.962173847225 4555.476578419844 3378.9514179672224 2234.2178207100424 1316.9355151798227
        691.9886045447396 324.1371504987573 135.34870708648037 50.381935504104526 16.71825780859867 4.945413647892101
        1.3040962989478737 0.3065576344280055 0.06424066742156362 0.012000611792092832 0.001998444832785933 0.0002966718743857854
        0.000039260517644805574 0.000004631600602471342 4.870814794811971e-7 4.566332857498606e-8 3.816180862644999e-9 2.8430583123520757e-10
        1.8881566383787276e-11 1.1178555997754436e-12 5.899685053133986e-14 2.775667138544975e-15 1.1641297122690773e-16 4.3524200126527915e-18
        1.450626669313257e-19 4.3099869086544366e-21 1.141541432416458e-22 2.69527349920601e-24 5.672956297604358e-26 1.0644161837394064e-27
        1.7803645356360578e-29 2.654616776413201e-31 3.528500384696858e-33 4.1809400277088204e-35 4.416244822359016e-37 4.1584145238018945e-39
        3.4905820507784124e-41 2.6119409703944567e-43 1.7423054643735007e-45 1.0360499023308841e-47 5.492024727710514e-50 2.5952531583866164e-52
        1.093257352886494e-54 4.105447663384649e-57 1.3743396229867538e-59 4.1013142748748855e-62 1.091057065392811e-64 2.5874223000552735e-67
        1420.5216392313832 2641.998142519707 4380.388160557696 6474.2299338893745 8530.197308933763 10019.025191823526
        10490.285182661246 9791.394649429942 8146.991262991718 6042.899619034186 3995.6638458360558 2355.2008119016814
        1237.5489190356773 579.6852398789855 242.05694291447074 90.1027985324267 29.89884767365904 8.8443527450277
        2.3322392225564825 0.5482461222870965 0.1148876845710347 0.021461833408141177 0.003574008627199534 0.0005305664790476757
        0.00007021331110513823 0.000008283131082432178 8.710940533635355e-7 8.166406577565445e-8 6.8248385455972e-9 5.084511100470339e-10
        3.3767697783592e-11 1.9991672984994034e-12 1.0550966897728532e-13 4.9639890662203795e-15 2.0819236871447156e-16 7.783845928201935e-18
        2.594293395501831e-19 7.7079587797148e-21 2.0415269217487366e-22 4.8202134884032626e-24 1.0145486338544188e-25 1.9035965172539445e-27
        3.1839949272219674e-29 4.747503211075971e-31 6.310352234443835e-33 7.477171990784596e-35 7.89798989493902e-37 7.436887493572262e-39
        6.242539277923721e-41 4.671182015523597e-43 3.1159302767477496e-45 1.8528664031109897e-47 9.821909234425737e-50 4.641337616965964e-52
        1.9551759182257065e-54 7.342161828404408e-57 2.457862027849613e-59 7.334769697307715e-62 1.9512409352050446e-64 4.62733294954886e-67
        2409.6838400923425 4481.719991980164 7430.615819086711 10982.477716549716 14470.091859536074 16995.64612847318
        17795.062028267683 16609.507949111077 13820.045150756709 10250.796015445274 6777.993614347223 3995.2149829147525
        2099.3003901986144 983.3416938528704 410.6102206501808 152.8447378585262 50.71853049389789 15.003005443339227
        3.956264382473424 0.9300103460467721 0.1948882644872929 0.03640650850650499 0.00606272413982602 0.0009000197077938544
        0.00011910545848564073 0.000014050984204297819 0.0000014776693333066082 1.3852980073032115e-7 1.1577228181799012e-8 8.6250458248583e-10
        5.728140523805826e-11 3.3912620545799345e-12 1.7897998684879157e-13 8.420599802857309e-15 3.5316448033361666e-16 1.3204028174541307e-17
        4.400796650293607e-19 1.307529797407841e-20 3.463118263452295e-22 8.176707927578798e-24 1.7210166888478786e-25 3.229141773697208e-27
        5.401129353590254e-29 8.05336677215718e-31 1.0704485862571978e-32 1.2683805735992674e-34 1.339765484272724e-36 1.2615469640816164e-38
        1.0589452215098774e-40 7.923900281468175e-43 5.285668748274871e-45 3.143086388914431e-47 1.6661270977790653e-49 7.873274115040667e-52
        3.3166378354048983e-54 1.2454782961857523e-56 4.169363032646549e-59 1.2442243414162083e-61 3.309962776937604e-64 7.849517475346588e-67
        3877.225455506517 7211.169593390334 11955.997016915031 17671.00789683175 23282.642962473 27346.306061284693
        28632.580893131977 26725.00265481444 22236.705896118685 16493.71863188746 10905.915930365618 6428.37411873273
        3377.8127969355996 1582.2148048771162 660.6793693462375 245.929984052426 81.60704496789447 24.14011068430808
        6.365701888863522 1.4964036889747279 0.31357878883424894 0.058578739326287044 0.009755034238743325 0.001448148202455532
        0.00019164286527837782 0.000022608291065161388 0.000002377597035177101 2.2289698789583268e-7 1.8627972294057633e-8 1.3877856783805003e-9
        9.216683069413491e-11 5.4566027897696224e-12 2.879820785990594e-13 1.3548899387987918e-14 5.682481204993912e-16 2.1245523293045337e-17
        7.080962453718538e-19 2.103839404155479e-20 5.572220746590644e-22 1.3156472891412822e-23 2.769147389516802e-25 5.195748287019467e-27
        8.690516104146297e-29 1.295801471214647e-30 1.7223713909656805e-32 2.040847585648655e-34 2.155707215031229e-36 2.0298521827107274e-38
        1.7038622662912264e-40 1.2749700756189792e-42 8.504737874409801e-45 5.057283595962566e-47 2.6808290316503236e-49 1.2668242326697267e-51
        5.336531053648563e-54 2.0039974016123332e-56 6.708581521966617e-59 2.0019797654097587e-61 5.325790762256064e-64 1.263001745809556e-66
        5917.398597599369 11005.644455979831 18247.17205452081 26969.38791587995 35533.83221986148 41735.77084787536
        43698.875901591186 40787.54125732903 33937.52924479663 25172.615990879767 16644.544500302058 9810.946624475757
        5155.197946808261 2414.766893213252 1008.324952597199 375.3368895978597 124.54819019137014 36.84249439411484
        9.715296637289745 2.2838024747840704 0.47858209603193774 0.08940252608891068 0.014888075657785682 0.002210155236176982
        0.0002924842094564371 0.00003450464033581126 0.000003628674556861799 3.4018406685912334e-7 2.8429901328649027e-8 2.118030308336672e-9
        1.4066447281781905e-10 8.32783495991501e-12 4.3951654800357824e-13 2.0678250248158648e-14 8.672569263559358e-16 3.242479220830028e-17
        1.0806923088204573e-18 3.2108672767644266e-20 8.50429040296343e-22 2.0079331246119097e-23 4.226256395794762e-25 7.929720358000636e-27
        1.3263414366078408e-28 1.9776445544694384e-30 2.628673047364517e-32 3.114729535286657e-34 3.290027623475969e-36 3.0979484162437783e-38
        2.6004245305711857e-40 1.9458518015077104e-42 1.2979880728758982e-44 7.718396364057113e-47 4.091465439483684e-49 1.9334196640946762e-51
        8.144582185195657e-54 3.058489001987744e-56 1.0238597508841611e-58 3.0554096975282558e-61 8.128190415887137e-64 1.9275858072180814e-66
        8566.2229295009 15932.136789128259 26415.212880098596 39041.78252472974 51439.95681790028 60418.089354755764
        63259.94549251566 59045.400676277255 49129.09556326407 36440.71575372259 24095.19595442315 14202.652491381768
        7462.835928608966 3495.696831785995 1459.6847224099786 543.3501591839894 180.30010063509798 53.33441968687239
        14.064186390116987 3.3061083858509965 0.6928113523298177 0.12942206888831584 0.021552473265466252 0.0031994941948944497
        0.00042340986503412595 0.000049950064431812934 0.000005252989921161732 4.924617643573492e-7 4.115607029476126e-8 3.0661310867265404e-9
        2.0363056713924918e-10 1.2055650740794158e-11 6.362587662982103e-13 2.9934522492636547e-14 1.2554699579191116e-15 4.6939207139388525e-17
        1.5644461130789339e-18 4.6481582127933804e-20 1.2311093506284021e-21 2.906750743465712e-23 6.118069257375047e-25 1.1479326808032293e-26
        1.9200559568906841e-28 2.8629040024059675e-30 3.8053544916900104e-32 4.508986022200811e-34 4.7627533623212076e-36 4.4846931163982333e-38
        3.764460999678572e-40 2.8168797562916024e-42 1.8790106849653517e-44 1.1173407169087044e-46 5.922941387991744e-49 2.79888258087512e-51
        1.1790367932005103e-53 4.427570356521647e-56 1.4821734128532646e-58 4.4231126530168524e-61 1.1766638661821631e-63 2.7904372957182293e-66
        11762.420447642782 21876.676930471003 36271.159724279045 53608.90848401723 70633.04386078884 82961.06410988464
        86863.2631326217 81076.20289241875 67459.96257433413 50037.34126883138 33085.50663656141 19501.8938276834
        10247.34175686317 4799.998345986935 2004.3169045785348 746.0829673957701 247.57300946706644 73.23436173106703
        19.311763765201228 4.539671358065251 0.9513105699057608 0.1777115540882678 0.029594052632221778 0.0043932776732362655
        0.0005813909928796642 0.000068587248320429 0.000007212966154213103 6.762072823029625e-7 5.651207151200404e-8 4.210154613821932e-9
        2.796084536202181e-10 1.655381069932289e-11 8.736572914679074e-13 4.110358116471827e-14 1.7239062800446386e-15 6.44529910552599e-17
        2.1481664791073884e-18 6.382461868666903e-20 1.6904563327724946e-21 3.9913068644752176e-23 8.400820703044185e-25 1.5762450905517122e-26
        2.636460156806259e-28 3.931100189042165e-30 5.225194330331511e-32 6.191362263410115e-34 6.539814337905681e-36 6.158005278155757e-38
        5.1690428093438495e-40 3.867903545896375e-42 2.580100224342802e-44 1.5342387658730392e-46 8.132887442419497e-49 3.843191330739143e-51
        1.6189546546943389e-53 6.07956908470996e-56 2.0351964922903886e-58 6.073448139307788e-61 1.6156963498952368e-63 3.831594971919962e-66
        15319.78974364319 28492.952820062586 47240.83305876139 69822.12632315312 91994.9584966302 108051.40529788124
        113133.7664353937 105596.4958108367 87862.22592136195 65170.39167079238 43091.72652773254 25399.951852837894
        13346.498014178671 6251.686526397849 2610.4927718279623 971.7246754350771 322.4477876912249 95.38300630587426
        25.152319777948378 5.912627508969561 1.2390203170115615 0.23145777314854726 0.038544334136500394 0.005721959229310619
        0.0007572240602527818 0.00008933044249192674 0.000009394420595865033 8.807161276128164e-7 7.36033078731792e-8 5.4834533214553635e-9
        3.641718759394783e-10 2.1560264785511895e-11 1.1378819582980791e-12 5.353474856277981e-14 2.245276120300779e-15 8.394584054452631e-17
        2.7978475128273966e-18 8.312742628953714e-20 2.2017097334821635e-21 5.198418322002246e-23 1.0941524103610258e-24 2.0529569980251233e-26
        3.433818358181432e-28 5.120003032147259e-30 6.805476718560695e-32 8.063847787483061e-34 8.517684014539386e-36 8.020402477663263e-38
        6.732343004360814e-40 5.037693503270354e-42 3.36041320155152e-44 1.9982464845857363e-46 1.0592558409315463e-48 5.0055074458178387e-51
        2.1085834352554647e-53 7.918244422930392e-56 2.6507114320281923e-58 7.91027228853756e-61 2.1043397045824166e-63 4.990403940574809e-66
        18925.950043397894 35199.97406525486 58360.96065545595 86257.71611938321 113649.86190323772 133485.87239163535
        139764.58212595008 130453.09615316594 108544.31596748457 80510.99902215588 53235.18646109591 31378.904535618156
        16488.16066653048 7723.285297351085 3224.9826280264656 1200.4611663063067 398.3495089402598 117.8354300249545
        31.07298178100289 7.304414403364173 1.53067613948462 0.2859411470436924 0.04761737298817285 0.0070688642818500635
        0.0009354687613744609 0.00011035813939015448 0.000011605794717762738 0.0000010880299085391433 9.092895863108321e-8 6.774215923572376e-9
        4.498951256234414e-10 2.663538475926832e-11 1.4057305915030051e-12 6.613641530592511e-14 2.7737967947033532e-15 1.0370604369136267e-16
        3.4564392294475376e-18 1.0269498103554803e-19 2.7199752165813298e-21 6.422085884548304e-23 1.3517074453941976e-24 2.536207234958285e-26
        4.242112704713239e-28 6.325212240505647e-30 8.407433427761736e-32 9.962015336848581e-34 1.0522681110000998e-35 9.90834333631668e-38
        8.31708460153131e-40 6.223527683622854e-42 4.1514285405991747e-44 2.4686182887958786e-46 1.3085964927793066e-48 6.183765276590276e-51
        2.6049277063048643e-53 9.78213806374058e-56 3.274668450514845e-58 9.772289350423832e-61 2.599685034175564e-63 6.165106522750107e-66
        22177.436928174608 41247.34572983251 68387.40042302685 101076.83125124444 133174.9602252619 156418.80639965815
        163776.2013417237 152864.99781453062 127192.27915961247 94342.82552494906 62381.01587467813 36769.814705108656
        19320.834219952267 9050.149248388827 3779.036120433242 1406.700944440474 466.78613700418754 138.07961086711083
        36.41133428115022 8.559316142989006 1.793647001235946 0.3350659670552988 0.05579805947437514 0.008283298402726328
        0.001096182722985515 0.00012931771827695497 0.000013599675565259754 0.0000012749539450999355 1.0655059536569496e-7 7.938029321559482e-9
        5.271873142393509e-10 3.121135605884139e-11 1.6472357508910736e-12 7.749868174329089e-14 3.2503363543203247e-15 1.215227894907195e-16
        4.050257071976232e-18 1.2033802580761002e-19 3.187268204428828e-21 7.525403180569736e-23 1.5839314035403535e-24 2.9719287994046286e-26
        4.970909610099311e-28 7.411886600116333e-30 9.851834340916248e-32 1.1673494133919959e-33 1.2330482543662248e-35 1.1610601259117068e-37
        9.745963544963321e-40 7.292732589793653e-42 4.864645865060764e-44 2.8927280413385124e-46 1.5334139695231483e-48 7.246138983023304e-51
        3.052455479199751e-53 1.1462713862915474e-55 3.837257989979226e-58 1.1451173136140597e-60 3.046312113597705e-63 7.224274646728437e-66
        24649.822428482905 45845.68321305561 76011.36606690461 112345.08072533975 148021.5740035554 173856.69113676858
        182034.30333990525 169906.69678656838 141371.93155875357 104860.35442792487 69335.37762723574 40868.98797839349
        21474.75987574274 10059.078181421499 4200.330706437933 1563.5228093641983 518.8243991627834 153.47300501367943
        40.47054343210615 9.513526009215536 1.9936063947803568 0.37241979839646105 0.062018539940020184 0.009206737253300172
        0.0012183873888707232 0.0001437343189254598 0.000015115794888937289 0.0000014170883882114097 1.1842907112845046e-7 8.822976877005476e-9
        5.859592217367394e-10 3.469086112584962e-11 1.8308729222775757e-12 8.613839144715208e-14 3.6126904216353495e-15 1.3507039572073312e-16
        4.501787917930459e-18 1.3375355218723795e-19 3.542591306902064e-21 8.364350339696928e-23 1.76051127831484e-24 3.303245429698454e-26
        5.5250766620970675e-28 8.238178701381494e-30 1.095013674866547e-31 1.2974878857867553e-33 1.3705109663626033e-35 1.2904974558244068e-37
        1.0832463262362532e-39 8.105741161118928e-42 5.406966419950102e-44 3.215215211019271e-46 1.7043620586327076e-48 8.053953204877123e-51
        3.3927493865413358e-53 1.2740600376160438e-55 4.265043267696063e-58 1.2727773065835188e-60 3.3859211461231967e-63 8.029651388173481e-66
        25987.53074880569 48333.65861583669 80136.38713437108 118441.87714931591 156054.47938071666 183291.62897261724
        191913.02773511948 179127.27444506396 149043.9709681623 110550.96615534025 73098.10296993444 43086.88571053686
        22640.16238710205 10604.96903386498 4428.276256569636 1648.3728109075835 546.9802091107109 161.8017512489672
        42.6668181855728 10.029810576175725 2.1017963774661887 0.39263045364208354 0.06538419164533114 0.009706372861730936
        0.0012845074168018546 0.00015153456149922953 0.000015936106055473693 0.0000014939916167455341 1.24856036445392e-7 9.30178639430033e-9
        6.177583362561758e-10 3.657348132329124e-11 1.9302316072616256e-12 9.081299075805544e-14 3.808745628515373e-15 1.4240046037775612e-16
        4.7460930917959565e-18 1.4101215375131452e-19 3.7348423415898504e-21 8.818270893322431e-23 1.856051544045217e-24 3.4825075281657406e-26
        5.82491415759027e-28 8.685252112361122e-30 1.1544383992428016e-31 1.3679005772116398e-33 1.4448865091526576e-35 1.3605307872619972e-37
        1.1420324545245824e-39 8.545627388497281e-42 5.700394252489596e-44 3.3897000435931162e-46 1.796855191728911e-48 8.491028978745793e-51
        3.5768687284276335e-53 1.343201335402449e-55 4.4965006699668846e-58 1.34184899251045e-60 3.569669929801742e-63 8.465408339462487e-66
        25987.53074880569 48333.65861583669 80136.38713437108 118441.87714931591 156054.47938071666 183291.62897261724
        191913.02773511948 179127.27444506396 149043.9709681623 110550.96615534025 73098.10296993444 43086.88571053686
        22640.16238710205 10604.96903386498 4428.276256569636 1648.3728109075835 546.9802091107109 161.8017512489672
        42.6668181855728 10.029810576175725 2.1017963774661887 0.39263045364208354 0.06538419164533114 0.009706372861730936
        0.0012845074168018546 0.00015153456149922953 0.000015936106055473693 0.0000014939916167455341 1.24856036445392e-7 9.30178639430033e-9
        6.177583362561758e-10 3.657348132329124e-11 1.9302316072616256e-12 9.081299075805544e-14 3.808745628515373e-15 1.4240046037775612e-16
        4.7460930917959565e-18 1.4101215375131452e-19 3.7348423415898504e-21 8.818270893322431e-23 1.856051544045217e-24 3.4825075281657406e-26
        5.82491415759027e-28 8.685252112361122e-30 1.1544383992428016e-31 1.3679005772116398e-33 1.4448865091526576e-35 1.3605307872619972e-37
        1.1420324545245824e-39 8.545627388497281e-42 5.700394252489596e-44 3.3897000435931162e-46 1.796855191728911e-48 8.491028978745793e-51
        3.5768687284276335e-53 1.343201335402449e-55 4.4965006699668846e-58 1.34184899251045e-60 3.569669929801742e-63 8.465408339462487e-66
        24649.822428482905 45845.68321305561 76011.36606690461 112345.08072533975 148021.5740035554 173856.69113676858
        182034.30333990525 169906.69678656838 141371.93155875357 104860.35442792487 69335.37762723574 40868.98797839349
        21474.75987574274 10059.078181421499 4200.330706437933 1563.5228093641983 518.8243991627834 153.47300501367943
        40.47054343210615 9.513526009215536 1.9936063947803568 0.37241979839646105 0.062018539940020184 0.009206737253300172
        0.0012183873888707232 0.0001437343189254598 0.000015115794888937289 0.0000014170883882114097 1.1842907112845046e-7 8.822976877005476e-9
        5.859592217367394e-10 3.469086112584962e-11 1.8308729222775757e-12 8.613839144715208e-14 3.6126904216353495e-15 1.3507039572073312e-16
        4.501787917930459e-18 1.3375355218723795e-19 3.542591306902064e-21 8.364350339696928e-23 1.76051127831484e-24 3.303245429698454e-26
        5.5250766620970675e-28 8.238178701381494e-30 1.095013674866547e-31 1.2974878857867553e-33 1.3705109663626033e-35 1.2904974558244068e-37
        1.0832463262362532e-39 8.105741161118928e-42 5.406966419950102e-44 3.215215211019271e-46 1.7043620586327076e-48 8.053953204877123e-51
        3.3927493865413358e-53 1.2740600376160438e-55 4.265043267696063e-58 1.2727773065835188e-60 3.3859211461231967e-63 8.029651388173481e-66
        22177.436928174608 41247.34572983251 68387.40042302685 101076.83125124444 133174.9602252619 156418.80639965815
        163776.2013417237 152864.99781453062 127192.27915961247 94342.82552494906 62381.01587467813 36769.814705108656
        19320.834219952267 9050.149248388827 3779.036120433242 1406.700944440474 466.78613700418754 138.07961086711083
        36.41133428115022 8.559316142989006 1.793647001235946 0.3350659670552988 0.05579805947437514 0.008283298402726328
        0.001096182722985515 0.00012931771827695497 0.000013599675565259754 0.0000012749539450999355 1.0655059536569496e-7 7.938029321559482e-9
        5.271873142393509e-10 3.121135605884139e-11 1.6472357508910736e-12 7.749868174329089e-14 3.2503363543203247e-15 1.215227894907195e-16
        4.050257071976232e-18 1.2033802580761002e-19 3.187268204428828e-21 7.525403180569736e-23 1.5839314035403535e-24 2.9719287994046286e-26
        4.970909610099311e-28 7.411886600116333e-30 9.851834340916248e-32 1.1673494133919959e-33 1.2330482543662248e-35 1.1610601259117068e-37
        9.745963544963321e-40 7.292732589793653e-42 4.864645865060764e-44 2.8927280413385124e-46 1.5334139695231483e-48 7.246138983023304e-51
        3.052455479199751e-53 1.1462713862915474e-55 3.837257989979226e-58 1.1451173136140597e-60 3.046312113597705e-63 7.224274646728437e-66
        18925.950043397894 35199.97406525486 58360.96065545595 86257.71611938321 113649.86190323772 133485.87239163535
        139764.58212595008 130453.09615316594 108544.31596748457 80510.99902215588 53235.18646109591 31378.904535618156
        16488.16066653048 7723.285297351085 3224.9826280264656 1200.4611663063067 398.3495089402598 117.8354300249545
        31.07298178100289 7.304414403364173 1.53067613948462 0.2859411470436924 0.04761737298817285 0.0070688642818500635
        0.0009354687613744609 0.00011035813939015448 0.000011605794717762738 0.0000010880299085391433 9.092895863108321e-8 6.774215923572376e-9
        4.498951256234414e-10 2.663538475926832e-11 1.4057305915030051e-12 6.613641530592511e-14 2.7737967947033532e-15 1.0370604369136267e-16
        3.4564392294475376e-18 1.0269498103554803e-19 2.7199752165813298e-21 6.422085884548304e-23 1.3517074453941976e-24 2.536207234958285e-26
        4.242112704713239e-28 6.325212240505647e-30 8.407433427761736e-32 9.962015336848581e-34 1.0522681110000998e-35 9.90834333631668e-38
        8.31708460153131e-40 6.223527683622854e-42 4.1514285405991747e-44 2.4686182887958786e-46 1.3085964927793066e-48 6.183765276590276e-51
        2.6049277063048643e-53 9.78213806374058e-56 3.274668450514845e-58 9.772289350423832e-61 2.599685034175564e-63 6.165106522750107e-66
        15319.78974364319 28492.952820062586 47240.83305876139 69822.12632315312 91994.9584966302 108051.40529788124
        113133.7664353937 105596.4958108367 87862.22592136195 65170.39167079238 43091.72652773254 25399.951852837894
        13346.498014178671 6251.686526397849 2610.4927718279623 971.7246754350771 322.4477876912249 95.38300630587426
        25.152319777948378 5.912627508969561 1.2390203170115615 0.23145777314854726 0.038544334136500394 0.005721959229310619
        0.0007572240602527818 0.00008933044249192674 0.000009394420595865033 8.807161276128164e-7 7.36033078731792e-8 5.4834533214553635e-9
        3.641718759394783e-10 2.1560264785511895e-11 1.1378819582980791e-12 5.353474856277981e-14 2.245276120300779e-15 8.394584054452631e-17
        2.7978475128273966e-18 8.312742628953714e-20 2.2017097334821635e-21 5.198418322002246e-23 1.0941524103610258e-24 2.0529569980251233e-26
        3.433818358181432e-28 5.120003032147259e-30 6.805476718560695e-32 8.063847787483061e-34 8.517684014539386e-36 8.020402477663263e-38
        6.732343004360814e-40 5.037693503270354e-42 3.36041320155152e-44 1.9982464845857363e-46 1.0592558409315463e-48 5.0055074458178387e-51
        2.1085834352554647e-53 7.918244422930392e-56 2.6507114320281923e-58 7.91027228853756e-61 2.1043397045824166e-63 4.990403940574809e-66
        11762.420447642782 21876.676930471003 36271.159724279045 53608.90848401723 70633.04386078884 82961.06410988464
        86863.2631326217 81076.20289241875 67459.96257433413 50037.34126883138 33085.50663656141 19501.8938276834
        10247.34175686317 4799.998345986935 2004.3169045785348 746.0829673957701 247.57300946706644 73.23436173106703
        19.311763765201228 4.539671358065251 0.9513105699057608 0.1777115540882678 0.029594052632221778 0.0043932776732362655
        0.0005813909928796642 0.000068587248320429 0.000007212966154213103 6.762072823029625e-7 5.651207151200404e-8 4.210154613821932e-9
        2.796084536202181e-10 1.655381069932289e-11 8.736572914679074e-13 4.110358116471827e-14 1.7239062800446386e-15 6.44529910552599e-17
        2.1481664791073884e-18 6.382461868666903e-20 1.6904563327724946e-21 3.9913068644752176e-23 8.400820703044185e-25 1.5762450905517122e-26
        2.636460156806259e-28 3.931100189042165e-30 5.225194330331511e-32 6.191362263410115e-34 6.539814337905681e-36 6.158005278155757e-38
        5.1690428093438495e-40 3.867903545896375e-42 2.580100224342802e-44 1.5342387658730392e-46 8.132887442419497e-49 3.843191330739143e-51
        1.6189546546943389e-53 6.07956908470996e-56 2.0351964922903886e-58 6.073448139307788e-61 1.6156963498952368e-63 3.831594971919962e-66
        8566.2229295009 15932.136789128259 26415.212880098596 39041.78252472974 51439.95681790028 60418.089354755764
        63259.94549251566 59045.400676277255 49129.09556326407 36440.71575372259 24095.19595442315 14202.652491381768
        7462.835928608966 3495.696831785995 1459.6847224099786 543.3501591839894 180.30010063509798 53.33441968687239
        14.064186390116987 3.3061083858509965 0.6928113523298177 0.12942206888831584 0.021552473265466252 0.0031994941948944497
        0.00042340986503412595 0.000049950064431812934 0.000005252989921161732 4.924617643573492e-7 4.115607029476126e-8 3.0661310867265404e-9
        2.0363056713924918e-10 1.2055650740794158e-11 6.362587662982103e-13 2.9934522492636547e-14 1.2554699579191116e-15 4.6939207139388525e-17
        1.5644461130789339e-18 4.6481582127933804e-20 1.2311093506284021e-21 2.906750743465712e-23 6.118069257375047e-25 1.1479326808032293e-26
        1.9200559568906841e-28 2.8629040024059675e-30 3.8053544916900104e-32 4.508986022200811e-34 4.7627533623212076e-36 4.4846931163982333e-38
        3.764460999678572e-40 2.8168797562916024e-42 1.8790106849653517e-44 1.1173407169087044e-46 5.922941387991744e-49 2.79888258087512e-51
        1.1790367932005103e-53 4.427570356521647e-56 1.4821734128532646e-58 4.4231126530168524e-61 1.1766638661821631e-63 2.7904372957182293e-66
        5917.398597599369 11005.644455979831 18247.17205452081 26969.38791587995 35533.83221986148 41735.77084787536